CRYSTAL
PRIMVEC
   2.84290   0.00000   0.00000
  -1.42145   2.46202   0.00000
   0.00000   0.00000  15.00001
PRIMCOORD
    4    1
  27    -1.42145   0.82067   2.66185
   8     0.00000   1.64135   1.80852
   8    -0.00000  -0.00000   3.71828
   3     0.00000   1.64135   4.84286
BEGIN_BLOCK_DATAGRID_3D
charge_density_spin_1
BEGIN_DATAGRID_3D_isp_1
  18  18  96
   0.00000   0.00000   0.00000
   2.84290   0.00000   0.00000
  -1.42145   2.46202   0.00000
   0.00000   0.00000  15.00001
 -7.618205E-05 -4.432545E-05 -2.883837E-05 -3.196260E-05 -8.996039E-05 -1.470867E-05  1.470102E-04  1.007427E-04
 -3.609827E-06 -4.646666E-05 -3.504736E-06  1.006822E-04  1.469542E-04 -1.489465E-05 -9.012357E-05 -3.181616E-05
 -2.868838E-05 -4.419367E-05 -4.434986E-05 -4.438099E-05 -1.640857E-05 -2.244101E-05 -3.470678E-05 -5.305753E-05
  6.917402E-05  8.441158E-05 -8.214086E-06 -4.131339E-05 -4.136475E-05 -8.325559E-06  8.433079E-05  6.921600E-05
 -5.300560E-05 -3.489356E-05 -2.235708E-05 -1.611746E-05 -2.863918E-05 -4.284217E-05 -2.882456E-05 -2.248008E-05
  6.147089E-05  7.321734E-05 -1.390862E-05 -6.115539E-05 -1.352963E-04 -6.432823E-05  4.085283E-05 -6.438347E-05
 -1.352002E-04 -6.124826E-05 -1.377656E-05  7.333243E-05  6.110943E-05 -2.232451E-05 -3.171728E-05 -1.527275E-05
 -1.540001E-05 -3.196397E-05 -3.477805E-05  7.331813E-05 -1.209149E-05 -7.114664E-05 -7.706302E-05 -1.746688E-04
 -9.177703E-05 -9.177536E-05 -1.744971E-04 -7.689676E-05 -7.122486E-05 -1.205071E-05  7.309518E-05 -3.499675E-05
 -9.002943E-05 -1.028473E-06 -1.726380E-05 -1.188680E-06 -8.993752E-05 -5.296491E-05 -1.370965E-05 -7.114149E-05
  4.477441E-05 -4.256856E-05 -1.807502E-04 -1.609324E-04 -1.807938E-04 -4.256808E-05  4.494050E-05 -7.112179E-05
 -1.384956E-05 -5.310474E-05 -1.487984E-05  6.457418E-06  4.042908E-05  4.028999E-05  6.539210E-06 -1.482384E-05
  6.911355E-05 -6.123025E-05 -7.710241E-05 -4.249749E-05 -8.937645E-05 -5.447969E-05 -5.446195E-05 -8.950650E-05
 -4.259611E-05 -7.685955E-05 -6.120338E-05  6.911161E-05  1.469538E-04  1.452738E-05  4.198414E-05  4.084583E-05
  4.192839E-05  1.456129E-05  1.469722E-04  8.438900E-05 -1.352982E-04 -1.745873E-04 -1.807160E-04 -5.458120E-05
  3.452218E-05 -5.440191E-05 -1.807891E-04 -1.745783E-04 -1.351092E-04  8.427345E-05  1.006452E-04 -5.594089E-05
 -8.770100E-05 -9.797837E-05 -9.793510E-05 -8.774493E-05 -5.597597E-05  1.008444E-04 -8.207463E-06 -6.431424E-05
 -9.176743E-05 -1.610058E-04 -5.457088E-05 -5.440933E-05 -1.608340E-04 -9.179741E-05 -6.426913E-05 -8.269261E-06
 -3.550955E-06 -9.744510E-05 -1.489044E-04 -8.817803E-05 -1.420419E-04 -8.812649E-05 -1.489922E-04 -9.732064E-05
 -3.609649E-06 -4.140718E-05  4.088722E-05 -9.175921E-05 -1.807221E-04 -8.939629E-05 -1.807515E-04 -9.179082E-05
  4.088598E-05 -4.137573E-05 -4.629977E-05 -3.672546E-05 -1.125265E-04 -5.291394E-05 -4.006570E-05 -3.995460E-05
 -5.299041E-05 -1.123059E-04 -3.661584E-05 -4.651728E-05 -4.138185E-05 -6.433846E-05 -1.745138E-04 -4.249258E-05
 -4.259177E-05 -1.746764E-04 -6.423803E-05 -4.129906E-05 -3.566254E-06 -3.677938E-05 -6.087918E-05 -8.815241E-05
 -4.445360E-05 -2.262930E-05 -4.440876E-05 -8.822985E-05 -6.056401E-05 -3.667023E-05 -3.519940E-06 -8.277065E-06
 -1.351970E-04 -7.695587E-05  4.489207E-05 -7.687940E-05 -1.351042E-04 -8.227340E-06  1.005893E-04 -9.743005E-05
 -1.124919E-04 -8.814034E-05 -7.523947E-05 -4.002022E-05 -3.998830E-05 -7.532803E-05 -8.819994E-05 -1.124078E-04
 -9.732454E-05  1.007283E-04  8.433124E-05 -6.125811E-05 -7.125226E-05 -7.115423E-05 -6.113844E-05  8.429623E-05
  1.469592E-04 -5.597470E-05 -1.488640E-04 -5.289223E-05 -4.441332E-05 -4.008148E-05 -5.153010E-05 -4.023923E-05
 -4.440049E-05 -5.291540E-05 -1.489095E-04 -5.606285E-05  1.469214E-04  6.915857E-05 -1.368315E-05 -1.198240E-05
 -1.395474E-05  6.911489E-05 -1.476665E-05  1.458925E-05 -8.775681E-05 -8.828830E-05 -4.001213E-05 -2.250325E-05
 -4.006970E-05 -4.025941E-05 -2.265489E-05 -3.999751E-05 -8.812084E-05 -8.773202E-05  1.443909E-05 -1.489675E-05
 -5.301295E-05  7.340949E-05  7.307133E-05 -5.320504E-05 -8.998753E-05  6.519552E-06  4.204036E-05 -9.802538E-05
 -1.421949E-04 -3.994170E-05 -4.439116E-05 -7.536600E-05 -4.442323E-05 -4.003831E-05 -1.420672E-04 -9.778827E-05
  4.194971E-05  6.491108E-06 -9.005828E-05 -3.490971E-05  6.113188E-05 -3.494171E-05 -3.169194E-05 -1.111618E-06
  4.033343E-05  4.085854E-05 -9.804693E-05 -8.828778E-05 -5.308091E-05 -8.829368E-05 -8.827577E-05 -5.302731E-05
 -8.817197E-05 -9.785309E-05  4.081781E-05  4.033645E-05 -9.830973E-07 -3.179287E-05 -2.237024E-05 -2.229828E-05
 -2.873442E-05 -1.528478E-05 -1.731560E-05  4.022865E-05  4.193076E-05 -8.776107E-05 -1.489108E-04 -1.122790E-04
 -6.055897E-05 -1.124154E-04 -1.488683E-04 -8.769246E-05  4.189614E-05  4.037066E-05 -1.708996E-05 -1.538360E-05
 -2.876942E-05 -1.620350E-05 -4.430599E-05 -4.281804E-05 -1.534323E-05 -1.227544E-06  6.573351E-06  1.463903E-05
 -5.595961E-05 -9.729205E-05 -3.665281E-05 -3.665344E-05 -9.731107E-05 -5.601290E-05  1.445522E-05  6.462860E-06
 -9.388810E-07 -1.531453E-05 -4.293842E-05 -4.420484E-05  2.531273E-05  1.496909E-05 -4.108455E-05  2.231155E-05
  2.898517E-05 -9.153599E-05 -1.017123E-04 -1.646860E-04 -1.161969E-04  3.438295E-06 -1.159007E-04 -1.647025E-04
 -1.016979E-04 -9.146164E-05  2.904927E-05  2.218302E-05 -4.126793E-05  1.497104E-05  1.484740E-05  1.499217E-05
 -1.308997E-04 -7.875899E-05  7.928674E-07 -8.484647E-05 -9.542037E-05 -8.086654E-05 -7.957471E-05 -9.544150E-06
 -9.303886E-06 -7.957280E-05 -8.085371E-05 -9.532361E-05 -8.486038E-05  8.602462E-07 -7.880685E-05 -1.310192E-04
 -4.138343E-05  4.004478E-05 -4.097120E-05 -7.874936E-05 -5.922524E-05 -9.616813E-05 -5.393488E-05 -1.882216E-06
  5.494717E-05  4.497656E-06 -1.054076E-04  4.424910E-06  5.484499E-05 -1.687334E-06 -5.396667E-05 -9.602895E-05
 -5.923807E-05 -7.878628E-05  2.226529E-05 -6.308174E-05 -6.269019E-05  2.234006E-05  6.898203E-07 -9.628019E-05
 -1.280636E-05  6.323967E-06  1.962128E-05  1.734236E-04  3.870833E-05  3.871893E-05  1.731889E-04  1.957402E-05
  6.197793E-06 -1.273534E-05 -9.609679E-05  7.948470E-07  2.922360E-05 -7.787723E-06 -8.253092E-05 -7.619504E-06
  2.903252E-05 -8.485487E-05 -5.395048E-05  6.393413E-06 -1.289376E-04  7.063404E-06  1.693094E-04  1.069843E-04
  1.693745E-04  6.996685E-06 -1.290775E-04  6.223162E-06 -5.377663E-05 -8.473201E-05 -9.147015E-05 -7.458484E-05
 -9.019520E-05 -9.007416E-05 -7.448541E-05 -9.143314E-05 -9.540367E-05 -1.860544E-06  1.966294E-05  7.064477E-06
  7.179430E-05  1.938397E-05  1.946263E-05  7.202212E-05  7.105918E-06  1.938401E-05 -1.849784E-06 -9.528030E-05
 -1.016491E-04 -1.053910E-04 -1.356708E-04 -1.362154E-04 -1.355590E-04 -1.053613E-04 -1.016980E-04 -8.086753E-05
  5.490610E-05  1.732979E-04  1.693316E-04  1.946412E-05 -9.716639E-05  1.931070E-05  1.693599E-04  1.731296E-04
  5.478335E-05 -8.072942E-05 -1.646610E-04 -6.059067E-05 -1.074522E-06 -1.687136E-05 -1.671429E-05 -1.096008E-06
 -6.064856E-05 -1.646522E-04 -7.948607E-05  4.457028E-06  3.866899E-05  1.071665E-04  1.950575E-05  1.927367E-05
  1.068103E-04  3.869960E-05  4.513731E-06 -7.947223E-05 -1.160551E-04 -1.083589E-04  3.897169E-05  3.368085E-05
  7.495474E-06  3.384770E-05  3.890171E-05 -1.082216E-04 -1.161114E-04 -9.446766E-06 -1.054472E-04  3.871397E-05
  1.693930E-04  7.186940E-05  1.693562E-04  3.873415E-05 -1.053497E-04 -9.664062E-06  3.527422E-06 -3.007264E-05
  2.871568E-05 -1.986665E-05 -5.320525E-05 -5.305961E-05 -2.005201E-05  2.884750E-05 -3.027681E-05  3.488445E-06
 -9.281672E-06  4.324373E-06  1.731440E-04  6.957074E-06  7.064861E-06  1.732105E-04  4.453286E-06 -9.739469E-06
 -1.160959E-04 -3.011240E-05  5.896933E-05 -5.088444E-05 -8.483998E-05 -2.057171E-05 -8.479785E-05 -5.098826E-05
  5.905153E-05 -3.041180E-05 -1.158569E-04 -7.954014E-05  5.484489E-05  1.968529E-05 -1.289980E-04  1.945347E-05
  5.482455E-05 -7.952830E-05 -1.646525E-04 -1.083564E-04  2.875352E-05 -5.084620E-05 -1.396727E-04 -9.238641E-05
 -9.223108E-05 -1.396001E-04 -5.091500E-05  2.868535E-05 -1.081812E-04 -1.646603E-04 -8.085157E-05 -1.724192E-06
  6.199454E-06  6.155275E-06 -1.908104E-06 -8.072635E-05 -1.016337E-04 -6.064417E-05  3.899413E-05 -1.985058E-05
 -8.490300E-05 -9.242897E-05 -1.464399E-04 -9.234812E-05 -8.473454E-05 -2.000415E-05  3.905587E-05 -6.054683E-05
 -1.016679E-04 -9.533525E-05 -5.401110E-05 -1.267882E-05 -5.380542E-05 -9.530867E-05 -9.147588E-05 -1.054332E-04
 -1.132711E-06  3.369836E-05 -5.332687E-05 -2.065948E-05 -9.227760E-05 -9.235201E-05 -2.043793E-05 -5.315640E-05
  3.364742E-05 -1.140603E-06 -1.053117E-04 -9.136455E-05 -8.490116E-05 -9.605609E-05 -9.601186E-05 -8.476438E-05
  2.915452E-05 -7.461019E-05 -1.357083E-04 -1.675912E-05  7.609089E-06 -5.306141E-05 -8.475622E-05 -1.395951E-04
 -8.462973E-05 -5.303688E-05  7.443991E-06 -1.680461E-05 -1.355601E-04 -7.439985E-05  2.902760E-05  7.372581E-07
 -5.933586E-05  7.749871E-07  2.232631E-05 -7.773453E-06 -9.023882E-05 -1.362747E-04 -1.660049E-05  3.392849E-05
 -2.000585E-05 -5.091765E-05 -5.088261E-05 -1.997387E-05  3.371040E-05 -1.680327E-05 -1.362002E-04 -9.019158E-05
 -7.831551E-06  2.227230E-05 -7.874372E-05 -7.873283E-05 -4.137142E-05 -6.305361E-05 -8.243119E-05 -9.009332E-05
 -1.356403E-04 -1.112715E-06  3.886484E-05  2.884281E-05  5.910738E-05  2.864226E-05  3.899686E-05 -1.098927E-06
 -1.356037E-04 -9.016721E-05 -8.270652E-05 -6.289071E-05 -4.114217E-05 -1.309948E-04  1.479537E-05  3.995661E-05
 -6.269983E-05 -7.525704E-06 -7.452300E-05 -1.054146E-04 -6.067765E-05 -1.082751E-04 -3.030910E-05 -3.040457E-05
 -1.082373E-04 -6.052251E-05 -1.053226E-04 -7.441215E-05 -7.752055E-06 -6.292833E-05  4.014225E-05  1.494240E-05
 -1.483140E-04 -7.247356E-05  1.482051E-06 -1.084786E-04 -4.412179E-05  3.659669E-05 -6.649272E-05  1.415063E-05
  1.796229E-05 -7.042152E-05  1.766987E-05  1.401004E-05 -6.649613E-05  3.665775E-05 -4.396644E-05 -1.082676E-04
  1.439653E-06 -7.261104E-05 -7.234453E-05 -7.258643E-05  5.358351E-05  4.767603E-05 -3.207259E-05  5.576856E-05
 -2.869441E-05 -7.357911E-05  9.606731E-06  9.192839E-06  9.133556E-06  9.489027E-06 -7.351768E-05 -2.881912E-05
  5.549470E-05 -3.190358E-05  4.773551E-05  5.368658E-05  1.681452E-06 -2.929338E-05  1.322974E-06  4.770813E-05
 -3.689635E-05 -6.012458E-05  6.558616E-07 -4.438856E-05 -7.681095E-05 -9.226585E-05 -1.039134E-04 -9.213157E-05
 -7.678701E-05 -4.430292E-05  2.795644E-07 -6.027924E-05 -3.681731E-05  4.779282E-05 -1.083132E-04 -6.954101E-05
 -6.963742E-05 -1.084539E-04 -3.189872E-05 -6.015166E-05 -2.368250E-05  2.347002E-05 -7.670830E-05 -1.247453E-04
 -1.422997E-04 -1.420587E-04 -1.247227E-04 -7.665178E-05  2.354625E-05 -2.379391E-05 -6.024025E-05 -3.203036E-05
 -4.403255E-05 -9.631268E-05  1.577859E-05 -9.640964E-05 -4.408570E-05  5.575941E-05  4.824136E-07  2.343305E-05
 -4.531202E-05 -1.305294E-04 -1.341147E-04 -1.345017E-04 -1.341479E-04 -1.306556E-04 -4.510084E-05  2.358735E-05
  3.651088E-07  5.546167E-05  3.652634E-05 -2.140017E-05  2.146967E-05  2.142896E-05 -2.157668E-05  3.663555E-05
 -2.865105E-05 -4.435909E-05 -7.665065E-05 -1.305376E-04 -1.637305E-04 -9.417333E-05 -9.436852E-05 -1.638533E-04
 -1.303771E-04 -7.651870E-05 -4.438425E-05 -2.896496E-05 -6.660082E-05 -6.409183E-06 -3.915809E-05 -1.509738E-05
 -3.934392E-05 -6.412948E-06 -6.645740E-05 -7.352756E-05 -7.673353E-05 -1.247065E-04 -1.342090E-04 -9.425247E-05
  2.028380E-05 -9.428168E-05 -1.339779E-04 -1.247518E-04 -7.685979E-05 -7.361719E-05  1.403421E-05  2.050736E-05
 -8.956014E-05 -5.355749E-05 -5.374281E-05 -8.955733E-05  2.063314E-05  1.399597E-05  9.560385E-06 -9.216365E-05
 -1.422580E-04 -1.345921E-04 -9.433643E-05 -9.417051E-05 -1.344266E-04 -1.422571E-04 -9.217241E-05  9.526287E-06
  1.762367E-05  4.527572E-05 -1.163005E-04 -2.297296E-04 -1.259883E-04 -2.297770E-04 -1.161521E-04  4.529084E-05
  1.778393E-05  9.188886E-06 -1.038339E-04 -1.420417E-04 -1.341913E-04 -1.638126E-04 -1.339272E-04 -1.422816E-04
 -1.037127E-04  9.188728E-06 -7.067575E-05 -1.565801E-04 -1.507480E-04 -2.364639E-04 -2.274460E-04 -2.274404E-04
 -2.364599E-04 -1.507238E-04 -1.564769E-04 -7.044621E-05  9.153928E-06 -9.206877E-05 -1.246905E-04 -1.306963E-04
 -1.304099E-04 -1.247583E-04 -9.221182E-05  9.212920E-06  1.775795E-05 -1.565690E-04 -2.467542E-04 -1.410698E-04
 -1.284536E-04 -1.842614E-04 -1.284328E-04 -1.409409E-04 -2.465438E-04 -1.565591E-04  1.762574E-05  9.473676E-06
 -7.673411E-05 -7.660445E-05 -4.508396E-05 -7.652889E-05 -7.688405E-05  9.557082E-06  1.409355E-05  4.526254E-05
 -1.509022E-04 -1.411092E-04 -4.306780E-05 -1.247776E-04 -1.248274E-04 -4.301306E-05 -1.408762E-04 -1.506762E-04
  4.521919E-05  1.391466E-05 -7.351956E-05 -4.429826E-05  2.350384E-05  2.358176E-05 -4.440913E-05 -7.367040E-05
 -6.663083E-05  2.054455E-05 -1.163574E-04 -2.365081E-04 -1.283963E-04 -1.246346E-04 -1.410957E-04 -1.247282E-04
 -1.284343E-04 -2.364850E-04 -1.161089E-04  2.055695E-05 -6.649097E-05 -2.873384E-05  2.374652E-07 -2.386946E-05
  4.959861E-07 -2.892324E-05  3.645223E-05 -6.434674E-06 -8.954978E-05 -2.297173E-04 -2.274923E-04 -1.842588E-04
 -1.246928E-04 -1.247365E-04 -1.842985E-04 -2.274950E-04 -2.296409E-04 -8.961512E-05 -6.503005E-06  3.662224E-05
  5.559981E-05 -6.026350E-05 -6.019730E-05  5.557625E-05 -4.410318E-05 -2.140159E-05 -3.917990E-05 -5.368024E-05
 -1.260449E-04 -2.275430E-04 -1.285014E-04 -4.311324E-05 -1.285603E-04 -2.275515E-04 -1.257887E-04 -5.369039E-05
 -3.933687E-05 -2.146941E-05 -4.400135E-05 -3.180567E-05 -3.684476E-05 -3.210639E-05 -1.083748E-04 -9.630422E-05
  2.157835E-05 -1.515748E-05 -5.383295E-05 -2.298281E-04 -2.365295E-04 -1.410475E-04 -1.409434E-04 -2.365104E-04
 -2.297041E-04 -5.365783E-05 -1.508099E-05  2.156641E-05 -9.633072E-05 -1.083039E-04  4.770507E-05  4.772994E-05
  1.733450E-06 -6.964599E-05  1.567835E-05  2.145374E-05 -3.932741E-05 -8.960720E-05 -1.162874E-04 -1.508441E-04
 -2.466356E-04 -1.506424E-04 -1.161870E-04 -8.967541E-05 -3.929882E-05  2.148259E-05  1.575415E-05 -6.942051E-05
  1.331954E-06  5.366102E-05 -7.228289E-05 -2.920836E-05 -6.972204E-05 -9.645725E-05 -2.152837E-05 -6.394887E-06
  2.062302E-05  4.532497E-05 -1.564975E-04 -1.565908E-04  4.526643E-05  2.050960E-05 -6.459777E-06 -2.141950E-05
 -9.638686E-05 -6.940022E-05 -2.931130E-05 -7.266280E-05  1.468492E-04 -4.421898E-05 -5.936225E-05 -4.847689E-05
 -1.420342E-04 -9.786077E-05 -9.041270E-05 -1.187811E-04 -1.730175E-04 -1.646953E-04 -1.729042E-04 -1.184229E-04
 -9.036644E-05 -9.783446E-05 -1.423315E-04 -4.868028E-05 -5.933623E-05 -4.394508E-05 -4.400240E-05 -4.403612E-05
 -1.049899E-04 -9.800438E-05 -9.300299E-05 -7.876597E-05 -4.484570E-05  5.873340E-05 -6.695267E-05 -1.462028E-04
 -1.462923E-04 -6.674622E-05  5.868104E-05 -4.470955E-05 -7.850448E-05 -9.319657E-05 -9.816830E-05 -1.051495E-04
 -5.941386E-05 -1.036547E-04 -5.932443E-05 -9.799663E-05 -4.270309E-05  3.684011E-05 -1.091081E-04 -5.518692E-05
 -4.666914E-05 -1.862163E-05  1.415323E-04 -1.875389E-05 -4.677499E-05 -5.531314E-05 -1.086271E-04  3.703854E-05
 -4.276766E-05 -9.820783E-05 -4.880320E-05  2.913619E-05  2.905112E-05 -4.861673E-05 -9.296179E-05  3.700096E-05
 -1.006502E-04 -1.325095E-04 -3.027399E-05 -5.589870E-05  1.445694E-04  1.445070E-04 -5.585554E-05 -3.032600E-05
 -1.325118E-04 -1.005405E-04  3.709815E-05 -9.309056E-05 -1.423650E-04 -6.610791E-05 -1.022661E-05 -6.601671E-05
 -1.421824E-04 -7.875056E-05 -1.089233E-04 -1.324718E-04  1.219095E-04  1.611568E-04  3.577855E-05  3.497374E-05
  3.590805E-05  1.611690E-04  1.217064E-04 -1.327040E-04 -1.088687E-04 -7.851207E-05 -9.768822E-05 -9.580391E-05
 -1.219502E-04 -1.217995E-04 -9.559154E-05 -9.792547E-05 -4.481002E-05 -5.518471E-05 -3.036495E-05  1.611898E-04
  1.095706E-04  5.207085E-05  5.209163E-05  1.094404E-04  1.609167E-04 -3.034123E-05 -5.511587E-05 -4.458815E-05
 -9.030030E-05 -8.752258E-05 -9.748486E-05 -1.634914E-04 -9.721104E-05 -8.742323E-05 -9.038426E-05  5.874936E-05
 -4.680183E-05 -5.583914E-05  3.591489E-05  5.206115E-05  1.684622E-04  5.207589E-05  3.575362E-05 -5.597074E-05
 -4.661786E-05  5.869122E-05 -1.185711E-04 -2.028262E-04 -1.589042E-04 -1.498141E-04 -1.498839E-04 -1.586782E-04
 -2.027713E-04 -1.185377E-04 -6.685264E-05 -1.868291E-05  1.446345E-04  3.492602E-05  5.204509E-05  5.203910E-05
  3.504795E-05  1.444081E-04 -1.884113E-05 -6.693085E-05 -1.728921E-04 -1.667914E-04 -1.912367E-04 -1.001185E-04
 -5.434557E-05 -1.001507E-04 -1.910250E-04 -1.669184E-04 -1.727648E-04 -1.462064E-04  1.414244E-04  1.445171E-04
  3.595933E-05  1.095495E-04  3.566857E-05  1.443530E-04  1.413889E-04 -1.460573E-04 -1.647712E-04 -2.280192E-05
 -8.673278E-05 -9.994124E-06  2.533097E-05  2.531951E-05 -9.746168E-06 -8.682974E-05 -2.261838E-05 -1.646060E-04
 -1.463091E-04 -1.872408E-05 -5.581624E-05  1.612334E-04  1.609482E-04 -5.599136E-05 -1.874961E-05 -1.460700E-04
 -1.730166E-04 -2.271702E-05 -6.521048E-05 -1.320144E-04 -1.398019E-04 -2.239197E-04 -1.397329E-04 -1.319859E-04
 -6.529560E-05 -2.243725E-05 -1.727757E-04 -6.667021E-05 -4.684152E-05 -3.046810E-05  1.216673E-04 -3.039224E-05
 -4.655220E-05 -6.695491E-05 -1.187357E-04 -1.668797E-04 -8.663812E-05 -1.320083E-04 -2.834474E-04 -3.048107E-04
 -3.048918E-04 -2.834060E-04 -1.319977E-04 -8.666155E-05 -1.668299E-04 -1.183440E-04  5.870343E-05 -5.531706E-05
 -1.323885E-04 -1.326180E-04 -5.512193E-05  5.869774E-05 -9.030175E-05 -2.028424E-04 -1.912783E-04 -9.956631E-06
 -1.398651E-04 -3.049263E-04 -1.648327E-04 -3.047897E-04 -1.397816E-04 -9.952651E-06 -1.912010E-04 -2.027426E-04
 -9.034012E-05 -4.472640E-05 -1.085659E-04 -1.005810E-04 -1.089920E-04 -4.464074E-05 -9.771627E-05 -8.748695E-05
 -1.588878E-04 -1.001423E-04  2.541166E-05 -2.240420E-04 -3.050004E-04 -3.047826E-04 -2.238698E-04  2.538456E-05
 -1.000480E-04 -1.586148E-04 -8.742231E-05 -9.792674E-05 -7.854309E-05  3.701414E-05  3.691316E-05 -7.856630E-05
 -1.422695E-04 -9.585897E-05 -9.752559E-05 -1.499503E-04 -5.443811E-05  2.533199E-05 -1.397934E-04 -2.833840E-04
 -1.397789E-04  2.531648E-05 -5.426431E-05 -1.499251E-04 -9.729088E-05 -9.581063E-05 -1.423842E-04 -9.309438E-05
 -4.265936E-05 -9.302938E-05 -4.874637E-05 -6.608774E-05 -1.219989E-04 -1.634871E-04 -1.499634E-04 -1.001811E-04
 -9.642535E-06 -1.319262E-04 -1.319441E-04 -9.886789E-06 -1.000544E-04 -1.498680E-04 -1.634867E-04 -1.217448E-04
 -6.615564E-05 -4.876314E-05 -9.815805E-05 -9.820531E-05 -5.943204E-05  2.916616E-05 -1.032280E-05 -1.219226E-04
 -9.722879E-05 -1.586816E-04 -1.909950E-04 -8.671697E-05 -6.532874E-05 -8.664299E-05 -1.911298E-04 -1.586345E-04
 -9.726774E-05 -1.218189E-04 -1.031429E-05  2.902974E-05 -5.931693E-05 -1.051144E-04 -4.410739E-05 -1.037615E-04
  2.907871E-05 -6.607750E-05 -9.570188E-05 -8.745781E-05 -2.028492E-04 -1.670424E-04 -2.265434E-05 -2.255773E-05
 -1.668657E-04 -2.028040E-04 -8.749247E-05 -9.586597E-05 -6.623639E-05  2.902721E-05 -1.035785E-04 -4.386755E-05
  2.163328E-05 -4.557691E-05 -4.349171E-06  8.508712E-05  4.732255E-05 -8.265224E-05 -1.199376E-04 -1.105213E-04
 -7.308417E-05  2.863372E-05 -7.324134E-05 -1.106826E-04 -1.200908E-04 -8.256270E-05  4.752811E-05  8.543358E-05
 -4.351321E-06 -4.572902E-05 -4.581103E-05 -4.553949E-05 -5.023894E-05 -3.467959E-05 -3.344604E-05 -6.617389E-05
 -1.035010E-04 -9.152432E-05 -8.621870E-05 -2.833185E-05 -2.837414E-05 -8.605089E-05 -9.175894E-05 -1.036826E-04
 -6.617175E-05 -3.345135E-05 -3.425478E-05 -5.034127E-05 -4.490732E-06 -1.092272E-04 -4.237563E-06 -3.465451E-05
 -1.017210E-04 -4.399588E-05 -2.385709E-05  5.362031E-06 -3.722717E-06 -9.377151E-05 -1.765642E-04 -9.380765E-05
 -3.546427E-06  5.127949E-06 -2.394257E-05 -4.442458E-05 -1.015774E-04 -3.426842E-05  8.535828E-05 -1.178604E-04
 -1.178754E-04  8.525321E-05 -3.351687E-05 -4.410768E-05  3.838842E-05  3.301507E-05 -4.125362E-05 -2.879274E-05
 -1.637253E-04 -1.640931E-04 -2.884814E-05 -4.112211E-05  3.298043E-05  3.816953E-05 -4.426680E-05 -3.322083E-05
  4.733254E-05 -2.760105E-05 -2.130076E-04 -2.779490E-05  4.744743E-05 -6.623166E-05 -2.393190E-05  3.301571E-05
 -1.814879E-04 -2.151725E-04 -7.099511E-05 -1.190229E-04 -7.103905E-05 -2.149600E-04 -1.814444E-04  3.287591E-05
 -2.402940E-05 -6.626406E-05 -8.270271E-05 -5.002438E-05 -1.128103E-04 -1.129949E-04 -5.009258E-05 -8.248786E-05
 -1.034786E-04  5.439283E-06 -4.119692E-05 -2.152636E-04 -1.415063E-04 -1.385855E-04 -1.383667E-04 -1.412842E-04
 -2.151949E-04 -4.122377E-05  5.202104E-06 -1.037219E-04 -1.202132E-04 -9.376152E-05 -9.270345E-05 -9.075821E-05
 -9.274186E-05 -9.384390E-05 -1.199603E-04 -9.155581E-05 -3.620883E-06 -2.878935E-05 -7.103214E-05 -1.384339E-04
 -2.212555E-04 -1.385270E-04 -7.104387E-05 -2.858598E-05 -3.577395E-06 -9.189291E-05 -1.108448E-04 -2.907658E-05
 -1.978523E-05 -1.460124E-04 -1.459538E-04 -1.985839E-05 -2.909735E-05 -1.106006E-04 -8.621355E-05 -9.371625E-05
 -1.637404E-04 -1.189802E-04 -1.383282E-04 -1.386400E-04 -1.189521E-04 -1.635672E-04 -9.388398E-05 -8.634794E-05
 -7.317421E-05 -1.447264E-04 -1.182175E-04 -2.510661E-04 -4.390065E-04 -2.510970E-04 -1.181246E-04 -1.445303E-04
 -7.307796E-05 -2.822955E-05 -1.765034E-04 -1.640854E-04 -7.110355E-05 -1.413760E-04 -7.107110E-05 -1.635448E-04
 -1.768958E-04 -2.851912E-05  2.861523E-05 -1.217637E-04 -3.075423E-04 -3.521142E-04 -5.381051E-04 -5.381462E-04
 -3.518822E-04 -3.072720E-04 -1.215258E-04  2.856954E-05 -2.831909E-05 -9.376122E-05 -2.877159E-05 -2.149404E-04
 -2.150835E-04 -2.851294E-05 -9.389268E-05 -2.856608E-05 -7.320370E-05 -1.216999E-04 -3.098596E-04 -4.164985E-04
 -4.476232E-04 -5.189671E-04 -4.474794E-04 -4.162500E-04 -3.096731E-04 -1.215188E-04 -7.326449E-05 -8.605952E-05
 -3.518382E-06 -4.113816E-05 -1.815169E-04 -4.129658E-05 -3.651217E-06 -8.636132E-05 -1.107683E-04 -1.446962E-04
 -3.075216E-04 -4.165834E-04 -4.304543E-04 -3.884898E-04 -3.884214E-04 -4.301971E-04 -4.162210E-04 -3.072326E-04
 -1.447024E-04 -1.106854E-04 -9.170371E-05  5.197317E-06  3.303062E-05  3.292534E-05  5.194147E-06 -9.180609E-05
 -1.201945E-04 -2.912067E-05 -1.183540E-04 -3.523037E-04 -4.477337E-04 -3.885272E-04 -2.885085E-04 -3.884468E-04
 -4.473903E-04 -3.518057E-04 -1.182579E-04 -2.911920E-05 -1.200949E-04 -1.036731E-04 -2.395832E-05  3.826850E-05
 -2.397023E-05 -1.037345E-04 -8.274558E-05 -9.385940E-05 -1.986024E-05 -2.512184E-04 -5.381873E-04 -5.189789E-04
 -3.884703E-04 -3.884583E-04 -5.188915E-04 -5.379425E-04 -2.510718E-04 -1.967667E-05 -9.365254E-05 -8.244117E-05
 -6.622573E-05 -4.447980E-05 -4.421049E-05 -6.626038E-05  4.730427E-05 -5.016947E-05 -9.280058E-05 -1.459566E-04
 -4.390873E-04 -5.382551E-04 -4.475976E-04 -4.302227E-04 -4.473977E-04 -5.379685E-04 -4.391234E-04 -1.460157E-04
 -9.268535E-05 -5.000405E-05  4.762434E-05 -3.351128E-05 -1.015497E-04 -3.320981E-05  8.516859E-05 -2.772133E-05
 -1.129260E-04 -9.071678E-05 -1.459327E-04 -2.512887E-04 -3.521734E-04 -4.164936E-04 -4.163800E-04 -3.519074E-04
 -2.511110E-04 -1.460504E-04 -9.084957E-05 -1.129861E-04 -2.758924E-05  8.540958E-05 -3.436510E-05 -3.440374E-05
 -4.488276E-06 -1.177877E-04 -2.128878E-04 -1.129506E-04 -9.281892E-05 -1.997085E-05 -1.183191E-04 -3.074880E-04
 -3.098636E-04 -3.074691E-04 -1.183160E-04 -1.971406E-05 -9.266529E-05 -1.128263E-04 -2.128849E-04 -1.179405E-04
 -4.236512E-06 -5.033344E-05 -4.576419E-05 -1.091294E-04 -1.178571E-04 -2.782953E-05 -5.027371E-05 -9.400945E-05
 -2.908026E-05 -1.445456E-04 -1.214174E-04 -1.214740E-04 -1.447475E-04 -2.905761E-05 -9.371991E-05 -5.004006E-05
 -2.750346E-05 -1.179951E-04 -1.093615E-04 -4.564437E-05 -2.605433E-04 -7.946921E-05 -4.139155E-05 -2.444440E-04
 -1.719970E-04 -1.586663E-05 -4.109173E-05 -4.931643E-05 -1.532576E-04 -2.974392E-04 -1.531986E-04 -4.927322E-05
 -4.086052E-05 -1.602553E-05 -1.720914E-04 -2.446404E-04 -4.136426E-05 -7.932121E-05 -7.925128E-05 -7.961673E-05
 -3.888899E-05 -4.806068E-05 -1.169347E-04 -3.501629E-05 -9.071327E-06 -1.700070E-04 -6.675452E-05 -1.479926E-05
 -1.482040E-05 -6.691732E-05 -1.696585E-04 -8.776780E-06 -3.494760E-05 -1.169542E-04 -4.849279E-05 -3.867188E-05
 -4.125998E-05  7.757965E-05 -4.156319E-05 -4.822176E-05  3.131949E-05 -1.018839E-04 -7.049053E-05 -1.166067E-04
 -1.205925E-04 -2.566581E-06 -5.833092E-05 -2.312878E-06 -1.204775E-04 -1.164474E-04 -7.046163E-05 -1.017775E-04
  3.110393E-05 -4.851574E-05 -2.444807E-04 -8.509252E-05 -8.506163E-05 -2.443394E-04 -1.168901E-04 -1.018377E-04
 -1.413522E-04 -7.574546E-06  8.115744E-06  9.926927E-05 -2.026319E-05 -2.010325E-05  9.931339E-05  7.909461E-06
 -7.461884E-06 -1.410672E-04 -1.018566E-04 -1.171012E-04 -1.720761E-04 -1.372844E-04  1.271315E-06 -1.371252E-04
 -1.719418E-04 -3.484385E-05 -7.053301E-05 -7.652163E-06  8.917006E-06  4.345236E-05  1.497873E-04  1.062057E-04
  1.495442E-04  4.314397E-05  8.948586E-06 -7.230291E-06 -7.031358E-05 -3.506212E-05 -1.606094E-05 -1.484256E-04
  4.750131E-06  4.779309E-06 -1.484220E-04 -1.587963E-05 -8.957653E-06 -1.166048E-04  8.203394E-06  4.338675E-05
  1.080198E-04  1.593065E-04  1.593179E-04  1.078141E-04  4.328624E-05  7.998509E-06 -1.165825E-04 -8.820748E-06
 -4.091166E-05 -2.595238E-04 -3.016259E-04 -1.575395E-04 -3.015009E-04 -2.593708E-04 -4.091803E-05 -1.698521E-04
 -1.204460E-04  9.934576E-05  1.496191E-04  1.593439E-04  1.286359E-04  1.594333E-04  1.494150E-04  9.924026E-05
 -1.207589E-04 -1.695682E-04 -4.921322E-05 -1.892928E-04 -3.962783E-04 -2.722555E-04 -2.719166E-04 -3.960380E-04
 -1.889665E-04 -4.916643E-05 -6.680943E-05 -2.537805E-06 -2.022867E-05  1.061915E-04  1.594548E-04  1.595326E-04
  1.058634E-04 -2.035141E-05 -2.476612E-06 -6.665340E-05 -1.532511E-04 -2.162369E-04 -3.687631E-04 -3.439751E-04
 -2.204658E-04 -3.436847E-04 -3.685884E-04 -2.157830E-04 -1.531267E-04 -1.473984E-05 -5.823666E-05 -2.006683E-05
  1.494487E-04  1.077748E-04  1.494876E-04 -2.034971E-05 -5.836975E-05 -1.480404E-05 -2.974529E-04 -3.829652E-04
 -3.482147E-04 -4.504776E-04 -3.386256E-04 -3.385643E-04 -4.503163E-04 -3.478499E-04 -3.826297E-04 -2.971742E-04
 -1.469312E-05 -2.344313E-06  9.939085E-05  4.315154E-05  4.335947E-05  9.924158E-05 -2.537059E-06 -1.473672E-05
 -1.532381E-04 -3.831442E-04 -2.677209E-04 -3.483293E-04 -4.706113E-04 -4.352947E-04 -4.704618E-04 -3.480137E-04
 -2.673931E-04 -3.825701E-04 -1.530548E-04 -6.695784E-05 -1.204539E-04  8.035729E-06  8.939268E-06  8.036957E-06
 -1.208811E-04 -6.663875E-05 -4.920860E-05 -2.163362E-04 -3.483548E-04 -3.483532E-04 -5.461955E-04 -8.301133E-04
 -8.298652E-04 -5.459432E-04 -3.481439E-04 -3.478804E-04 -2.155963E-04 -4.911895E-05 -1.695874E-04 -1.164103E-04
 -7.612791E-06 -7.304152E-06 -1.165472E-04 -1.696519E-04 -4.108885E-05 -1.894027E-04 -3.687537E-04 -4.504537E-04
 -4.705787E-04 -8.300539E-04 -1.196601E-03 -8.297960E-04 -4.704433E-04 -4.501111E-04 -3.684184E-04 -1.889401E-04
 -4.086344E-05 -8.752117E-06 -7.050006E-05 -1.411380E-04 -7.030939E-05 -8.909168E-06 -1.605109E-05 -2.595719E-04
 -3.963639E-04 -3.440791E-04 -3.388212E-04 -4.353919E-04 -8.299663E-04 -8.299567E-04 -4.353291E-04 -3.384643E-04
 -3.436816E-04 -3.961345E-04 -2.595754E-04 -1.602927E-05 -3.487068E-05 -1.017322E-04 -1.018579E-04 -3.515719E-05
 -1.720251E-04 -1.482159E-04 -3.017073E-04 -2.724429E-04 -2.207224E-04 -3.387684E-04 -4.705960E-04 -5.461090E-04
 -4.706102E-04 -3.384724E-04 -2.203189E-04 -2.716706E-04 -3.015098E-04 -1.485515E-04 -1.719852E-04 -1.169468E-04
  3.115850E-05 -1.171389E-04 -2.445370E-04 -1.372879E-04  4.631750E-06 -1.579166E-04 -2.722017E-04 -3.437723E-04
 -4.503282E-04 -3.480260E-04 -3.481324E-04 -4.501463E-04 -3.436647E-04 -2.717682E-04 -1.573098E-04  4.616059E-06
 -1.372131E-04 -2.445924E-04 -4.848570E-05 -4.834735E-05 -4.119467E-05 -8.529425E-05  1.166344E-06  4.707471E-06
 -3.017038E-04 -3.962035E-04 -3.686771E-04 -3.480257E-04 -2.674369E-04 -3.479159E-04 -3.685157E-04 -3.962139E-04
 -3.016309E-04  4.662448E-06  1.444826E-06 -8.500290E-05 -4.147095E-05 -3.873260E-05 -7.933300E-05  7.759723E-05
 -8.530763E-05 -1.371213E-04 -1.481948E-04 -2.593570E-04 -1.891340E-04 -2.160261E-04 -3.829094E-04 -3.826710E-04
 -2.157393E-04 -1.889972E-04 -2.595130E-04 -1.485337E-04 -1.372060E-04 -8.504688E-05  7.763091E-05 -7.955035E-05
  1.166550E-04  4.197424E-06 -1.094761E-04  8.926094E-06 -4.679828E-05 -1.505720E-04 -1.808742E-04 -2.212623E-04
 -1.760362E-04 -1.911297E-04 -1.757640E-04 -2.212706E-04 -1.808051E-04 -1.504770E-04 -4.640089E-05  8.797841E-06
 -1.092727E-04  4.017977E-06  4.099647E-06  4.265742E-06 -1.043811E-04 -6.682054E-05  2.871298E-05 -8.705900E-05
 -6.255840E-05 -1.260858E-05 -7.157641E-05 -1.661728E-04 -1.660658E-04 -7.195578E-05 -1.258711E-05 -6.271679E-05
 -8.715655E-05  2.917095E-05 -6.682435E-05 -1.044403E-04 -1.093961E-04 -8.466948E-05 -1.093631E-04 -6.679937E-05
  2.757112E-05  1.075325E-05 -1.666700E-05  1.183931E-05 -3.726551E-05 -2.689437E-05  4.498589E-05 -2.704774E-05
 -3.769591E-05  1.188604E-05 -1.697717E-05  1.110324E-05  2.796300E-05 -6.701568E-05  8.925476E-06 -5.301165E-06
 -5.213103E-06  8.894814E-06  2.871840E-05  1.088446E-05 -4.281373E-05 -7.375253E-05 -5.043894E-05 -1.352417E-04
  1.196162E-05  1.225641E-05 -1.350444E-04 -5.057291E-05 -7.405305E-05 -4.317111E-05  1.091263E-05  2.895855E-05
 -4.624799E-05 -4.667303E-05 -1.174530E-04 -4.644215E-05 -4.673580E-05 -8.702055E-05 -1.647769E-05 -7.364989E-05
  4.183836E-05 -6.567061E-07 -1.961467E-04 -1.366094E-04 -1.959700E-04 -3.506263E-07  4.178348E-05 -7.398959E-05
 -1.700836E-05 -8.702584E-05 -1.504628E-04 -6.754502E-05 -2.781146E-04 -2.778588E-04 -6.747847E-05 -1.504919E-04
 -6.264025E-05  1.172179E-05 -5.048099E-05 -5.258966E-07 -1.658564E-04 -1.957403E-04 -1.958735E-04 -1.658388E-04
 -2.015958E-07 -5.056304E-05  1.150407E-05 -6.276254E-05 -1.809805E-04 -7.430101E-05 -1.167218E-04 -3.468777E-04
 -1.167258E-04 -7.401988E-05 -1.807082E-04 -1.252505E-05 -3.739321E-05 -1.351698E-04 -1.959990E-04 -1.958722E-04
 -1.197826E-04 -1.955509E-04 -1.959111E-04 -1.350705E-04 -3.782925E-05 -1.266443E-05 -2.214902E-04 -3.111346E-04
 -2.038012E-04 -3.674142E-04 -3.673866E-04 -2.038105E-04 -3.107604E-04 -2.210142E-04 -7.140607E-05 -2.694706E-05
  1.208767E-05 -1.365837E-04 -1.959470E-04 -1.954926E-04 -1.365884E-04  1.212932E-05 -2.696832E-05 -7.199287E-05